
    -----------------------------------------------------------------------
          Psi4: An Open-Source Ab Initio Electronic Structure Package
                               Psi4 1.1 release

                         Git: Rev {} zzzzzzz 


    R. M. Parrish, L. A. Burns, D. G. A. Smith, A. C. Simmonett,
    A. E. DePrince III, E. G. Hohenstein, U. Bozkaya, A. Yu. Sokolov,
    R. Di Remigio, R. M. Richard, J. F. Gonthier, A. M. James,
    H. R. McAlexander, A. Kumar, M. Saitow, X. Wang, B. P. Pritchard,
    P. Verma, H. F. Schaefer III, K. Patkowski, R. A. King, E. F. Valeev,
    F. A. Evangelista, J. M. Turney, T. D. Crawford, and C. D. Sherrill,
    J. Chem. Theory Comput. in press (2017).
    (doi: 10.1021/acs.jctc.7b00174)

    -----------------------------------------------------------------------


    Psi4 started on: Saturday, 01 June 2019 01:52PM

    Process ID:  18883
    PSIDATADIR: /usr/share/psi4
    Memory:     500.0 MiB
    Threads:    1
    
  ==> Input File <==

--------------------------------------------------------------------------
memory 1 GB

molecule ethane {
    C           -0.763258712219     0.000010228216    -0.000001389253
    C            0.763258712219    -0.000010228216     0.000001389253
    H           -1.157862670824     0.653859643410     0.778844510666
    H           -1.157863310359     0.347594342981    -0.955671149469
    H           -1.157884064328    -1.001407408746     0.176820292084
    H            1.157863310359    -0.347594342981     0.955671149469
    H            1.157884064328     1.001407408746    -0.176820292084
    H            1.157862670824    -0.653859643410    -0.778844510666
}

ethane.symmetrize(1E-1)

energy('hf/sto-3g')
--------------------------------------------------------------------------

  Memory set to 953.674 MiB by Python driver.

*** tstart() called on ws-b14-mmd
*** at Sat Jun  1 13:52:32 2019

   => Loading Basis Set <=

    Name: STO-3G
    Role: ORBITAL
    Keyword: BASIS
    atoms 1-2 entry C          line    60 file /usr/share/psi4/basis/sto-3g.gbs 
    atoms 3-8 entry H          line    18 file /usr/share/psi4/basis/sto-3g.gbs 

    There are an even number of electrons - assuming singlet.
    Specify the multiplicity in the molecule input block.


         ---------------------------------------------------------
                                   SCF
            by Justin Turney, Rob Parrish, and Andy Simmonett
                              RHF Reference
                        1 Threads,    953 MiB Core
         ---------------------------------------------------------

  ==> Geometry <==

    Molecular point group: c2h
    Full point group: C2h

    Geometry (in Angstrom), charge = 0, multiplicity = 1:

       Center              X                  Y                   Z               Mass       
    ------------   -----------------  -----------------  -----------------  -----------------
           C          0.000010313971     0.763258712219     0.000000000000    12.000000000000
           C         -0.000010313971    -0.763258712219     0.000000000000    12.000000000000
           H          0.508472650948     1.157862990592     0.880673465239     1.007825032070
           H          0.508472650948     1.157862990592    -0.880673465239     1.007825032070
           H         -1.016898330210     1.157884064328     0.000000000000     1.007825032070
           H         -0.508472650948    -1.157862990592     0.880673465239     1.007825032070
           H          1.016898330210    -1.157884064328     0.000000000000     1.007825032070
           H         -0.508472650948    -1.157862990592    -0.880673465239     1.007825032070

  Running in c2h symmetry.

  Rotational constants: A =      2.69582  B =      0.66855  C =      0.66855 [cm^-1]
  Rotational constants: A =  80818.78256  B =  20042.73416  C =  20042.73349 [MHz]
  Nuclear repulsion =   42.281558443264721

  Charge       = 0
  Multiplicity = 1
  Electrons    = 18
  Nalpha       = 9
  Nbeta        = 9

  ==> Algorithm <==

  SCF Algorithm Type is DF.
  DIIS enabled.
  MOM disabled.
  Fractional occupation disabled.
  Guess Type is SAD.
  Energy threshold   = 1.00e-06
  Density threshold  = 1.00e-06
  Integral threshold = 0.00e+00

  ==> Primary Basis <==

  Basis Set: STO-3G
    Blend: STO-3G
    Number of shells: 12
    Number of basis function: 16
    Number of Cartesian functions: 16
    Spherical Harmonics?: true
    Max angular momentum: 1

   => Loading Basis Set <=

    Name: (STO-3G AUX)
    Role: JKFIT
    Keyword: DF_BASIS_SCF
    atoms 1-2 entry C          line   202 file /usr/share/psi4/basis/def2-svp-jkfit.gbs 
    atoms 3-8 entry H          line    22 file /usr/share/psi4/basis/def2-svp-jkfit.gbs 

  ==> Pre-Iterations <==

   -------------------------------------------------------
    Irrep   Nso     Nmo     Nalpha   Nbeta   Ndocc  Nsocc
   -------------------------------------------------------
     Ag         6       6       0       0       0       0
     Bg         2       2       0       0       0       0
     Au         2       2       0       0       0       0
     Bu         6       6       0       0       0       0
   -------------------------------------------------------
    Total      16      16       9       9       9       0
   -------------------------------------------------------

  ==> Integral Setup <==

  ==> DFJK: Density-Fitted J/K Matrices <==

    J tasked:                  Yes
    K tasked:                  Yes
    wK tasked:                  No
    OpenMP threads:              1
    Integrals threads:           1
    Memory (MB):               715
    Algorithm:                Core
    Integral Cache:           NONE
    Schwarz Cutoff:          1E-12
    Fitting Condition:       1E-12

   => Auxiliary Basis Set <=

  Basis Set: (STO-3G AUX)
    Blend: DEF2-SVP-JKFIT
    Number of shells: 86
    Number of basis function: 258
    Number of Cartesian functions: 298
    Spherical Harmonics?: true
    Max angular momentum: 4

  Minimum eigenvalue in the overlap matrix is 2.0670623290E-01.
  Using Symmetric Orthogonalization.

  SCF Guess: Superposition of Atomic Densities via on-the-fly atomic UHF.

  ==> Iterations <==

                           Total Energy        Delta E     RMS |[F,P]|

   @DF-RHF iter   0:   -77.65183290264321   -7.76518e+01   2.11222e-01 
   @DF-RHF iter   1:   -78.26832859984171   -6.16496e-01   2.36939e-02 
   @DF-RHF iter   2:   -78.30406491885859   -3.57363e-02   5.28919e-03 DIIS
   @DF-RHF iter   3:   -78.30610278931782   -2.03787e-03   1.22042e-03 DIIS
   @DF-RHF iter   4:   -78.30620246972339   -9.96804e-05   6.03226e-05 DIIS
   @DF-RHF iter   5:   -78.30620272309476   -2.53371e-07   6.34704e-06 DIIS
   @DF-RHF iter   6:   -78.30620272588796   -2.79320e-09   3.44842e-07 DIIS

  ==> Post-Iterations <==

    Orbital Energies (a.u.)
    -----------------------

    Doubly Occupied:                                                      

       1Bu   -11.036266     1Ag   -11.035975     2Ag    -0.981682  
       2Bu    -0.810185     1Au    -0.570492     3Bu    -0.570491  
       3Ag    -0.476277     1Bg    -0.456973     4Ag    -0.456973  

    Virtual:                                                              

       4Bu     0.646902     2Au     0.646903     5Bu     0.699484  
       5Ag     0.735487     6Bu     0.776347     6Ag     0.786057  
       2Bg     0.786057  

    Final Occupation by Irrep:
             Ag    Bg    Au    Bu 
    DOCC [     4,    1,    1,    3 ]

  Energy converged.

  @DF-RHF Final Energy:   -78.30620272588796

   => Energetics <=

    Nuclear Repulsion Energy =             42.2815584432647213
    One-Electron Energy =                -188.3848874718910054
    Two-Electron Energy =                  67.7971263027383344
    DFT Exchange-Correlation Energy =       0.0000000000000000
    Empirical Dispersion Energy =           0.0000000000000000
    PCM Polarization Energy =               0.0000000000000000
    EFP Energy =                            0.0000000000000000
    Total Energy =                        -78.3062027258879567



Properties will be evaluated at   0.000000,   0.000000,   0.000000 Bohr

Properties computed using the SCF density matrix

  Nuclear Dipole Moment: (a.u.)
     X:     0.0000      Y:     0.0000      Z:     0.0000

  Electronic Dipole Moment: (a.u.)
     X:     0.0000      Y:     0.0000      Z:     0.0000

  Dipole Moment: (a.u.)
     X:     0.0000      Y:     0.0000      Z:     0.0000     Total:     0.0000

  Dipole Moment: (Debye)
     X:     0.0000      Y:     0.0000      Z:     0.0000     Total:     0.0000


*** tstop() called on ws-b14-mmd at Sat Jun  1 13:52:32 2019
Module time:
	user time   =       0.34 seconds =       0.01 minutes
	system time =       0.01 seconds =       0.00 minutes
	total time  =          0 seconds =       0.00 minutes
Total time:
	user time   =       0.34 seconds =       0.01 minutes
	system time =       0.01 seconds =       0.00 minutes
	total time  =          0 seconds =       0.00 minutes

*** Psi4 exiting successfully. Buy a developer a beer!
