
 Primary working directories    : /tmp/262909.1.gen4.q
 Secondary working directories  : /tmp/262909.1.gen4.q
 Wavefunction directory         : /home/vulcan/mmd01986/wfu/
 Main file repository           : /tmp/262909.1.gen4.q/

 ARCHNAME  : Linux/x86_64
 FC        : /opt/intel/compilers_and_libraries_2016.1.150/linux/bin/intel64/ifort
 FCVERSION : 16.0.1
 BLASLIB   : -mkl
 id        : ccgc

 Nodes     nprocs
 n031         1
 ga_uses_ma=false, calling ma_init with nominal heap.
 GA-space will be limited to   8.0 MW (determined by -G option)

 Using customized tuning parameters: mindgm=10; mindgv=16; mindgc=4; mindgr=1; noblas=0; mincuda=1000; minvec=7
 default implementation of scratch files=df  

 memory,1000,m
 gthresh,energy=1.d-10,orbital=1.d-10,oneint=1.d-14,twoint=1.d-14
 gprint,orbital=5
 
                                                                                 !standard ano0 sp
 angstrom
 geometry={
 O   -1.136386   0.944398  -0.203420
 C    0.097955   0.947264  -0.076439
 H    0.665191   1.899027  -0.104904
 C    0.887958  -0.247190   0.114108
 H    1.969013  -0.134197   0.215230
 C    0.275551  -1.611427   0.175621
 H    0.686592  -2.258058  -0.614718
 H   -0.811489  -1.545714   0.057428
 H    0.505913  -2.098015   1.135774
 }
 
 basis=cc-pvdz
 {rhf}
 forces
 
                                                         ! print last computed energy on its own line for easy regex identification
                                            ! optavc will find this energy and pair it with the geometry for the numerical gradient
 show[1,f24.10],energy(1)

 Variables initialized (661), CPU time= 0.00 sec
 Commands  initialized (458), CPU time= 0.00 sec, 486 directives.
 Default parameters read. Elapsed time= 0.06 sec

 Checking input...
 Passed
1


                                         ***  PROGRAM SYSTEM MOLPRO  ***
                         Copyright, University College Cardiff Consultants Limited, 2008

                                    Version 2010.1 linked May 16 2016 07:17:05


 **********************************************************************************************************************************
 LABEL *                                                                                 
 Linux-4.4.3/n031(x86_64) 64 bit mpp version                                             DATE: 02-Feb-19          TIME: 19:29:29  
 **********************************************************************************************************************************

 SHA1:             9e8077add272b0f3cad6f7df79ec5211205f459d
 **********************************************************************************************************************************

 THRESHOLDS:

 ZERO    =  1.00D-12  ONEINT  =  1.00D-14  TWOINT  =  1.00D-14  PREFAC  =  1.00D-14  LOCALI  =  1.00D-09  EORDER  =  1.00D-04
 ENERGY  =  1.00D-10  ETEST   =  0.00D+00  EDENS   =  0.00D+00  THRDEDEF=  1.00D-06  GRADIENT=  1.00D-02  STEP    =  1.00D-03
 ORBITAL =  1.00D-10  CIVEC   =  1.00D-05  COEFF   =  1.00D-04  PRINTCI =  5.00D-02  PUNCHCI =  9.90D+01  OPTGRAD =  3.00D-04
 OPTENERG=  1.00D-06  OPTSTEP =  3.00D-04  THRGRAD =  1.00D-10  COMPRESS=  1.00D-11  VARMIN  =  1.00D-07  VARMAX  =  1.00D-03
 THRDOUB =  0.00D+00  THRDIV  =  1.00D-05  THRRED  =  1.00D-07  THRPSP  =  1.00D+00  THRDC   =  1.00D-10  THRCS   =  1.00D-10
 THRNRM  =  1.00D-08  THREQ   =  0.00D+00  THRDE   =  1.00D+00  THRREF  =  1.00D-05  SPARFAC =  1.00D+00  THRDLP  =  1.00D-07
 THRDIA  =  1.00D-10  THRDLS  =  1.00D-07  THRGPS  =  0.00D+00  THRKEX  =  0.00D+00  THRDIS  =  2.00D-01  THRVAR  =  1.00D-10
 THRLOC  =  1.00D-06  THRGAP  =  1.00D-06  THRLOCT = -1.00D+00  THRGAPT = -1.00D+00  THRORB  =  1.00D-06  THRMLTP =  0.00D+00
 THRCPQCI=  1.00D-10  KEXTA   =  0.00D+00  THRCOARS=  0.00D+00  SYMTOL  =  1.00D-06  GRADTOL =  1.00D-06  THROVL  =  1.00D-08
 THRORTH =  1.00D-08  GRID    =  1.00D-06  GRIDMAX =  1.00D-03  DTMAX   =  0.00D+00


 ZUNIT=ANG
 

Geometry recognized as XYZ


 Variable memory set to 1000000000 words,  buffer space   230000 words

 SETTING BASIS          =    CC-PVDZ


 Recomputing integrals since basis changed


 Using spherical harmonics

 Library entry O      S cc-pVDZ              selected for orbital group  1
 Library entry O      P cc-pVDZ              selected for orbital group  1
 Library entry O      D cc-pVDZ              selected for orbital group  1
 Library entry C      S cc-pVDZ              selected for orbital group  2
 Library entry C      P cc-pVDZ              selected for orbital group  2
 Library entry C      D cc-pVDZ              selected for orbital group  2
 Library entry H      S cc-pVDZ              selected for orbital group  3
 Library entry H      P cc-pVDZ              selected for orbital group  3

1PROGRAM * SEWARD (Integral evaluation for generally contracted gaussian basis sets)     Author: Roland Lindh, 1990

 Geometry written to block  1 of record 700


 Point group  C1  



 ATOMIC COORDINATES

 NR  ATOM    CHARGE       X              Y              Z

   1  O       8.00   -2.147458320    1.784653579   -0.384408090
   2  C       6.00    0.185108123    1.790069534   -0.144448776
   3  H       1.00    1.257028815    3.588640946   -0.198239830
   4  C       6.00    1.677997436   -0.467121402    0.215632869
   5  H       1.00    3.720895319   -0.253595578    0.406725755
   6  C       6.00    0.520715925   -3.045155711    0.331875593
   7  H       1.00    1.297470844   -4.267111209   -1.161648668
   8  H       1.00   -1.533491969   -2.920976138    0.108523192
   9  H       1.00    0.956037016   -3.964673770    2.146301807

 Bond lengths in Bohr (Angstrom)

 1-2  2.344882943  2-3  2.094460926  2-4  2.730071101  4-5  2.062896393  4-6  2.828263383
     ( 1.240858611)     ( 1.108340987)     ( 1.444691406)     ( 1.091637756)     ( 1.496652523)

 6-7  2.080177435  6-8  2.070042737  6-9  2.080182780
     ( 1.100782489)     ( 1.095419438)     ( 1.100785318)

 Bond angles

  1-2-3  120.56099920   1-2-4  123.74839866   2-4-5  117.91552544   2-4-6  122.36456881

  3-2-4  115.69060214   4-6-7  110.68035469   4-6-8  110.30016708   4-6-9  110.67994658

  5-4-6  119.71990573   7-6-8  109.16699861   7-6-9  106.76484253   8-6-9  109.16562418

 NUCLEAR CHARGE:                   31
 NUMBER OF PRIMITIVE AOS:         143
 NUMBER OF SYMMETRY AOS:          139
 NUMBER OF CONTRACTIONS:           81   (  81A   )
 NUMBER OF CORE ORBITALS:           4   (   4A   )
 NUMBER OF VALENCE ORBITALS:       21   (  21A   )


 NUCLEAR REPULSION ENERGY  109.73363380


 Eigenvalues of metric

         1 0.270E-02 0.476E-02 0.109E-01 0.165E-01 0.197E-01 0.287E-01 0.330E-01 0.356E-01


 Contracted 2-electron integrals neglected if value below      1.0D-14
 AO integral compression algorithm  1   Integral accuracy      1.0D-14

     43.516 MB (compressed) written to integral file ( 86.6%)

     Node minimum: 43.516 MB, node maximum: 43.516 MB


 NUMBER OF SORTED TWO-ELECTRON INTEGRALS:    5516181.     BUFFER LENGTH:  32768
 NUMBER OF SEGMENTS:   1  SEGMENT LENGTH:    5516181      RECORD LENGTH: 524288

 Memory used in sort:       6.07 MW

 SORT1 READ     6293016. AND WROTE     5487705. INTEGRALS IN     16 RECORDS. CPU TIME:     0.07 SEC, REAL TIME:     0.09 SEC
 SORT2 READ     5487705. AND WROTE     5516181. INTEGRALS IN    166 RECORDS. CPU TIME:     0.08 SEC, REAL TIME:     0.11 SEC

 FILE SIZES:   FILE 1:    41.0 MBYTE,  FILE 4:    67.1 MBYTE,   TOTAL:    108.1 MBYTE

 OPERATOR DM      FOR CENTER  0  COORDINATES:    0.000000    0.000000    0.000000


 **********************************************************************************************************************************
 DATASETS  * FILE   NREC   LENGTH (MB)   RECORD NAMES
              1      19       41.06       500      610      700      900      950      970     1000      129      960     1100   
                                          VAR    BASINP    GEOM    SYMINP    ZMAT    AOBASIS   BASIS     P2S    ABASIS      S 
                                         1400     1410     1200     1210     1080     1600     1650     1300     1700   
                                           T        V       H0       H01     AOSYM     SMH    MOLCAS    ERIS     OPER   

 PROGRAMS   *        TOTAL       INT
 CPU TIMES  *         0.98      0.92
 REAL TIME  *         1.44 SEC
 DISK USED  *       152.38 MB      
 GA USED    *         0.00 MB       (max)       0.00 MB       (current)
 **********************************************************************************************************************************

1PROGRAM * RHF-SCF (OPEN SHELL)       Authors: W. Meyer, H.-J. Werner


 NUMBER OF ELECTRONS:      16+   15-    SPACE SYMMETRY=1    SPIN SYMMETRY: Doublet 
 CONVERGENCE THRESHOLDS:    1.00E-10 (Density)    1.00E-11 (Energy)
 MAX. NUMBER OF ITERATIONS:       60
 INTERPOLATION TYPE:            DIIS
 INTERPOLATION STEPS:              2 (START)      1 (STEP)
 LEVEL SHIFTS:                 -0.30 (CLOSED)  0.00 (OPEN) 



 Orbital guess generated from atomic densities. Full valence occupancy:   25

 Molecular orbital dump at record        2100.2

 ITERATION    DDIFF          GRAD             ENERGY        2-EL.EN.            DIPOLE MOMENTS         DIIS
    1      0.000D+00      0.000D+00      -191.25301060    353.296072    2.20335   -1.06986    0.32491    0
    2      0.000D+00      0.899D-02      -191.31578215    350.968317    0.97014   -0.55275    0.15052    1
    3      0.159D-01      0.529D-02      -191.33641630    351.828251    1.35488   -0.57430    0.19215    2
    4      0.584D-02      0.121D-02      -191.34071903    351.819922    1.27405   -0.47882    0.17509    3
    5      0.273D-02      0.432D-03      -191.34167435    351.805225    1.27101   -0.45617    0.17271    4
    6      0.107D-02      0.217D-03      -191.34214790    351.801159    1.25693   -0.43077    0.16893    5
    7      0.868D-03      0.113D-03      -191.34224920    351.794763    1.24997   -0.41490    0.16677    6
    8      0.474D-03      0.367D-04      -191.34225714    351.794737    1.24732   -0.40910    0.16596    7
    9      0.160D-03      0.917D-05      -191.34225736    351.794814    1.24742   -0.40854    0.16592    8
   10      0.325D-04      0.178D-05      -191.34225737    351.794734    1.24743   -0.40857    0.16593    8
   11      0.582D-05      0.635D-06      -191.34225737    351.794752    1.24746   -0.40859    0.16593    8
   12      0.179D-05      0.237D-06      -191.34225737    351.794721    1.24745   -0.40860    0.16593    8
   13      0.740D-06      0.112D-06      -191.34225737    351.794717    1.24744   -0.40860    0.16593    8
   14      0.357D-06      0.379D-07      -191.34225737    351.794715    1.24744   -0.40860    0.16593    7
   15      0.112D-06      0.156D-07      -191.34225737    351.794715    1.24744   -0.40860    0.16593    7
   16      0.557D-07      0.525D-08      -191.34225737    351.794715    1.24744   -0.40860    0.16593    8
   17      0.259D-07      0.164D-08      -191.34225737    351.794715    1.24744   -0.40860    0.16593    8
   18      0.615D-08      0.549D-09      -191.34225737    351.794715    1.24744   -0.40860    0.16593    9
   19      0.110D-08      0.290D-09      -191.34225737    351.794715    1.24744   -0.40860    0.16593    8
   20      0.143D-08      0.541D-10      -191.34225737    351.794715    1.24744   -0.40860    0.16593    7
   21      0.176D-09      0.198D-10      -191.34225737    351.794715    1.24744   -0.40860    0.16593    7
   22      0.370D-10      0.128D-10      -191.34225737    351.794715    1.24744   -0.40860    0.16593    0

 Final alpha occupancy:  16
 Final beta  occupancy:  15

 !RHF STATE 1.1 Energy               -191.342257373013
 Nuclear energy                       109.73363380
 One-electron energy                 -476.97324892
 Two-electron energy                  175.89735775
 Virial quotient                       -1.00167241
 !RHF STATE 1.1 Dipole moment           1.24744023    -0.40860229     0.16593040
 Dipole moment /Debye                   3.17046915    -1.03849540     0.42172537

 ELECTRON ORBITALS
 =================


   Orb  Occ    Energy  Couls-En    Coefficients

                                   1 1s      1 1s      1 1s      1 2px     1 2py     1 2pz     1 2px     1 2py     1 2pz     1 3d0  
                                   1 3d2-    1 3d1+    1 3d2+    1 3d1-    2 1s      2 1s      2 1s      2 2px     2 2py     2 2pz  
                                   2 2px     2 2py     2 2pz     2 3d0     2 3d2-    2 3d1+    2 3d2+    2 3d1-    3 1s      3 1s   
                                   3 2px     3 2py     3 2pz     4 1s      4 1s      4 1s      4 2px     4 2py     4 2pz     4 2px  
                                   4 2py     4 2pz     4 3d0     4 3d2-    4 3d1+    4 3d2+    4 3d1-    5 1s      5 1s      5 2px  
                                   5 2py     5 2pz     6 1s      6 1s      6 1s      6 2px     6 2py     6 2pz     6 2px     6 2py  
                                   6 2pz     6 3d0     6 3d2-    6 3d1+    6 3d2+    6 3d1-    7 1s      7 1s      7 2px     7 2py  
                                   7 2pz     8 1s      8 1s      8 2px     8 2py     8 2pz     9 1s      9 1s      9 2px     9 2py  
                                   9 2pz  

   1.1   2   -20.5507  -58.3641  1.000767  0.003420 -0.005515  0.002450 -0.000029  0.000255 -0.002849  0.000092 -0.000302 -0.000214
                                 0.000015  0.000039  0.000015 -0.000032  0.000209  0.000557  0.001925  0.000018  0.000127 -0.000010
                                -0.002589 -0.000772 -0.000196  0.000077  0.000049 -0.000089 -0.000683 -0.000045 -0.000177  0.000506
                                 0.000360 -0.000016  0.000039  0.000023  0.000029 -0.000962  0.000082 -0.000205  0.000027  0.001438
                                 0.001419  0.000019 -0.000004  0.000195 -0.000042 -0.000235 -0.000002 -0.000194 -0.000382 -0.000061
                                -0.000121  0.000005 -0.000088 -0.000332  0.001779  0.000003 -0.000016  0.000002  0.000196  0.000657
                                -0.000040  0.000024 -0.000025 -0.000004 -0.000020 -0.000001 -0.000118  0.000093  0.000002 -0.000006
                                -0.000008 -0.000143  0.000025  0.000012 -0.000035  0.000004 -0.000118  0.000093  0.000001 -0.000005
                                 0.000009

   2.1   2   -11.3344  -37.3477 -0.000051  0.001078 -0.002311  0.000465  0.000023  0.000046 -0.001245 -0.000108 -0.000118  0.000057
                                -0.000010  0.000000  0.000094  0.000017  1.001146  0.006985 -0.006413 -0.000458 -0.000005 -0.000047
                                -0.001966  0.000184 -0.000219 -0.000786  0.000038  0.000173  0.000328 -0.000093 -0.000215  0.001557
                                 0.000289  0.000341 -0.000001  0.006574 -0.000101  0.000666 -0.000018 -0.000187  0.000015  0.000470
                                 0.001946 -0.000129  0.000335  0.000114 -0.000059  0.000125  0.000077 -0.000148 -0.000021 -0.000114
                                -0.000029 -0.000009 -0.000175 -0.000421  0.001832  0.000049  0.000074 -0.000002  0.000255  0.000816
                                -0.000048 -0.000114  0.000063  0.000011 -0.000038 -0.000015 -0.000066  0.000139 -0.000016 -0.000003
                                 0.000019 -0.000208  0.000130 -0.000005 -0.000002 -0.000000 -0.000066  0.000139 -0.000012 -0.000006
                                -0.000021

   3.1   2   -11.2692  -36.7748  0.000024  0.000061 -0.000439 -0.000020  0.000026 -0.000004 -0.000046  0.000140 -0.000018 -0.000050
                                 0.000013  0.000008 -0.000003 -0.000007 -0.006952 -0.000639  0.003091 -0.000081  0.000105 -0.000018
                                 0.000062 -0.001640  0.000156  0.000228  0.000178 -0.000052  0.000061  0.000061  0.000047  0.000416
                                -0.000047 -0.000049 -0.000000  1.001397  0.008559 -0.010972  0.000224  0.000162  0.000008  0.001687
                                 0.000042  0.000170 -0.000464 -0.000030  0.000102  0.000142 -0.000065 -0.000795  0.001149  0.000528
                                 0.000060  0.000049  0.013208 -0.000102  0.001962  0.000063 -0.000059  0.000012 -0.000158  0.001390
                                -0.000143  0.000234 -0.000166 -0.000020  0.000065  0.000026 -0.000183  0.000577  0.000057  0.000043
                                 0.000053 -0.000168 -0.000094  0.000069  0.000029  0.000005 -0.000183  0.000577  0.000067  0.000034
                                -0.000048

   4.1   2   -11.2438  -35.7962  0.000004 -0.000004 -0.000296 -0.000080  0.000004 -0.000009 -0.000022  0.000146 -0.000016  0.000001
                                 0.000007 -0.000002 -0.000011 -0.000000 -0.000014 -0.000575  0.001779  0.000020  0.000150 -0.000012
                                 0.000183 -0.001036  0.000114 -0.000167 -0.000015  0.000039  0.000072 -0.000022 -0.000023  0.000350
                                -0.000026  0.000024 -0.000005 -0.013371 -0.000007  0.001168 -0.000011 -0.000092  0.000007  0.000142
                                -0.001715  0.000171  0.000207 -0.000219  0.000005  0.000215  0.000030 -0.000193  0.000084 -0.000051
                                 0.000103 -0.000015  1.001710  0.009888 -0.012242  0.000295  0.000084  0.000023 -0.000749 -0.000819
                                -0.000003  0.000087 -0.000121 -0.000002  0.000029  0.000004  0.000184  0.001155  0.000190 -0.000219
                                -0.000328  0.000293  0.000962 -0.000331  0.000049 -0.000039  0.000184  0.001155  0.000116 -0.000153
                                 0.000394

   5.1   2    -1.3667  -14.6817 -0.010599  0.793766 -0.060586  0.183022 -0.003646  0.019200 -0.048725  0.000940 -0.005109 -0.007568
                                -0.000508  0.002754  0.012864 -0.000101 -0.014026  0.432253 -0.166414 -0.249951 -0.016346 -0.024273
                                 0.108532  0.007687  0.010486 -0.014265 -0.002473  0.006582  0.036337  0.000752  0.071340 -0.038896
                                -0.009370 -0.007301 -0.000299 -0.002167  0.086491 -0.021466 -0.038043  0.032032 -0.006848 -0.000639
                                -0.017871  0.001567 -0.003272 -0.009590  0.001695  0.001978 -0.001353  0.013269 -0.001141 -0.001086
                                 0.002082 -0.000302  0.000556  0.028572 -0.026916  0.000487  0.013570 -0.001190  0.003323 -0.012361
                                 0.001473 -0.001044  0.001291 -0.000128 -0.001912 -0.000207  0.005108 -0.004046 -0.000208  0.000684
                                 0.000148  0.013032 -0.001114  0.001049  0.000630  0.000051  0.005108 -0.004047 -0.000161  0.000642
                                -0.000307

   6.1   2    -1.0548  -12.2865  0.000312 -0.200584  0.016851  0.015528 -0.033200  0.004633  0.006199  0.005987  0.000092  0.000364
                                -0.002593  0.000215  0.000378 -0.000179 -0.001726  0.243042 -0.099808  0.164912 -0.130661  0.028936
                                -0.031816  0.065061 -0.009223 -0.003002 -0.010777  0.000013 -0.014899 -0.002972  0.068334 -0.041166
                                -0.000576 -0.007344  0.000611 -0.019391  0.594594 -0.088265 -0.071906 -0.032669 -0.004425 -0.020237
                                -0.013742 -0.000831 -0.015214  0.003622  0.000828 -0.015509 -0.003488  0.197984 -0.080604 -0.016737
                                -0.001786 -0.001562 -0.015883  0.511964 -0.185185  0.042572  0.100326 -0.004777 -0.010279 -0.055275
                                 0.003990 -0.006852  0.008658 -0.000424 -0.008348 -0.000958  0.172481 -0.081932 -0.005287  0.010408
                                 0.010329  0.174975 -0.079366  0.015744 -0.000979  0.001714  0.172482 -0.081933 -0.002891  0.008285
                                -0.012883

   7.1   2    -0.9207  -11.5991  0.000943 -0.226907 -0.019766  0.085903 -0.003951  0.009216 -0.004359  0.004861 -0.000893 -0.000832
                                -0.001208  0.000613  0.003379  0.000047 -0.004342  0.466267 -0.110789  0.220819 -0.065888  0.028782
                                -0.054739  0.007549 -0.006332 -0.006416 -0.011385  0.001575 -0.006342 -0.002806  0.229538 -0.101788
                                -0.006707 -0.015162  0.000694 -0.003691  0.271123 -0.089027  0.002443  0.300651 -0.027214  0.012941
                                -0.075071  0.008192 -0.000644 -0.020230  0.002000 -0.000052 -0.002229  0.138584 -0.065952 -0.010924
                                 0.002145 -0.001322  0.015761 -0.513063  0.136597  0.007629  0.057467 -0.004465  0.001943 -0.012789
                                 0.001368 -0.001220  0.000152 -0.000199 -0.003941 -0.000540 -0.238760  0.100136  0.007166 -0.009747
                                -0.014179 -0.218387  0.087049 -0.017615  0.001405 -0.001946 -0.238756  0.100134  0.003963 -0.006910
                                 0.016851

   8.1   2    -0.7535  -11.0046 -0.000655 -0.259838 -0.039462  0.254532  0.130303  0.014336 -0.010634 -0.008306 -0.000337 -0.004468
                                 0.007065  0.001089  0.009050  0.000845 -0.000670  0.440966 -0.086748  0.028554  0.278039 -0.022454
                                 0.040610 -0.086342  0.012073 -0.001027  0.008156 -0.000694 -0.001164  0.000583  0.415009 -0.156067
                                -0.012269 -0.019861  0.000549  0.006769 -0.398701  0.045252 -0.159594  0.078015 -0.023579  0.039864
                                -0.047419  0.008442  0.000219 -0.003753 -0.000759 -0.010348 -0.001301 -0.334116  0.122140  0.019242
                                 0.003727  0.001643 -0.005297  0.204422 -0.041928 -0.117905 -0.188519  0.005072  0.012003  0.033939
                                -0.001867  0.008326 -0.014164  0.000424  0.005973  0.000402  0.152291 -0.052623 -0.004887  0.003328
                                 0.007458  0.178044 -0.085592  0.010900 -0.005085  0.001590  0.152299 -0.052624 -0.003212  0.001845
                                -0.008767

   9.1   2    -0.6876  -11.3719 -0.000176  0.114794  0.027061 -0.157196  0.333626 -0.046679  0.006608 -0.016981  0.002232  0.002732
                                 0.013422 -0.002252 -0.004860  0.001405 -0.005462 -0.105262  0.056110  0.098721  0.445334 -0.030502
                                -0.048586 -0.117243  0.005702  0.002423 -0.006663  0.000716  0.005182  0.000164  0.312374 -0.098102
                                -0.006360 -0.013621  0.000589 -0.005121  0.021873 -0.005024  0.418582 -0.122496  0.054340 -0.072828
                                 0.054840 -0.012518  0.001871  0.010182 -0.000958  0.003222  0.001663  0.375417 -0.134819 -0.016960
                                -0.004023 -0.001381 -0.002759  0.005127  0.030614  0.191838 -0.115321  0.030312 -0.027342  0.043057
                                -0.006751  0.005348  0.007491 -0.001322  0.003416  0.001960  0.109098 -0.036731  0.000502  0.001302
                                 0.006185 -0.172903  0.073601 -0.006756 -0.000809 -0.000624  0.109052 -0.036715  0.001769  0.000179
                                -0.006085

  10.1   2    -0.6190  -12.1268  0.001616  0.256431  0.076032 -0.631848 -0.058979 -0.059748  0.020691  0.001691  0.001978  0.010245
                                -0.001381 -0.003837 -0.020334 -0.000346 -0.007157 -0.098231  0.075176  0.521586 -0.039368  0.057363
                                -0.238178  0.002826 -0.024810  0.003167  0.000215 -0.003116 -0.024387 -0.001689  0.168907 -0.030315
                                 0.005420 -0.009788  0.001453  0.001017 -0.058401 -0.010796 -0.087340  0.276885 -0.034298  0.048895
                                 0.008677  0.004247 -0.000306 -0.002514 -0.000507 -0.007718 -0.001016 -0.104125  0.018817  0.003283
                                 0.001300  0.000220 -0.003333  0.019939  0.046038 -0.244389 -0.117162 -0.014483  0.070197  0.049599
                                 0.002705  0.001956 -0.010261  0.001153  0.005315 -0.000277  0.002903  0.002012 -0.005061 -0.001770
                                -0.000450  0.240400 -0.047974  0.011630 -0.002828  0.001460  0.002948  0.001997 -0.005080 -0.001753
                                -0.000276

  11.1   2    -0.5759   -9.7095  0.000000  0.000000  0.000001 -0.016739  0.014851  0.162398 -0.000604  0.000535  0.005863  0.001275
                                 0.000658  0.006850 -0.000692 -0.000175  0.000001 -0.000003 -0.000008 -0.013022  0.011543  0.126265
                                 0.001681 -0.001485 -0.016288 -0.000851 -0.000340 -0.008553  0.001283 -0.004377  0.000002 -0.000002
                                -0.000231  0.000204  0.002238 -0.000001  0.000004  0.000008 -0.014733  0.013038  0.142889  0.003343
                                -0.002962 -0.032480  0.000762  0.000692 -0.007854  0.002050 -0.013580 -0.000001  0.000002 -0.000241
                                 0.000213  0.002338  0.000000 -0.000003 -0.000002 -0.061976  0.054946  0.601121  0.009494 -0.008417
                                -0.092065  0.005315  0.003055  0.016010 -0.000304 -0.014840 -0.504538  0.136509  0.008866 -0.015633
                                -0.008038 -0.000066  0.000019 -0.001252  0.001107  0.012108  0.504589 -0.136524 -0.006761  0.013771
                                -0.012341

  12.1   2    -0.5582  -10.9190  0.000828  0.015710  0.010572 -0.106909  0.288129 -0.037350  0.004281 -0.002291  0.000650  0.001264
                                 0.010261 -0.001540 -0.003402  0.000970 -0.001200 -0.073248  0.000046  0.039891  0.268452 -0.020416
                                -0.023972 -0.035929  0.000811  0.002595 -0.003310 -0.001935 -0.017155 -0.001492  0.201625 -0.051847
                                -0.001837 -0.007918  0.000534 -0.000632  0.115187  0.025857 -0.221551 -0.412990  0.014884  0.028567
                                 0.086465 -0.004952 -0.003931  0.023641 -0.002003 -0.004964  0.001392 -0.200268  0.056378  0.009129
                                -0.006750  0.001558  0.002723  0.045386 -0.005622 -0.103146  0.552589 -0.061147  0.009801 -0.099457
                                 0.010099 -0.019327  0.017718  0.001252 -0.005954 -0.001804 -0.311132  0.078427  0.003569 -0.000015
                                -0.014003  0.148933 -0.055037  0.006672  0.007952 -0.000038 -0.311095  0.078419  0.000657  0.002565
                                 0.014206

  13.1   2    -0.5288  -10.1571  0.001386  0.059588  0.022838 -0.211366 -0.034893 -0.018563  0.001731  0.004300 -0.000213  0.003288
                                -0.001037 -0.001023 -0.005057 -0.000039 -0.000803  0.056808  0.017217  0.194160 -0.070288  0.026463
                                -0.072696  0.017852 -0.009125  0.003455  0.005776 -0.003478 -0.022333 -0.000873  0.078048 -0.013625
                                 0.003275 -0.004392  0.000739  0.003453  0.028249 -0.012212 -0.367523 -0.113572 -0.027502  0.068413
                                 0.031511  0.004170  0.000335 -0.012146 -0.002434 -0.033927 -0.004310 -0.416823  0.090745  0.012500
                                 0.000338  0.001258  0.001548  0.015728 -0.006989  0.538931  0.026380  0.053145 -0.062951  0.000323
                                -0.006514  0.008788  0.000601 -0.004430 -0.026794 -0.000959  0.166654 -0.042232  0.008085  0.005232
                                 0.007166 -0.558874  0.164559 -0.019345  0.001707 -0.002153  0.166532 -0.042205  0.009466  0.004006
                                -0.006197

  14.1   2    -0.5107  -11.8242 -0.000000 -0.000003 -0.000002 -0.069037  0.061182  0.669799 -0.002033  0.001801  0.019720  0.004830
                                 0.002477  0.026544 -0.002743  0.000004 -0.000000 -0.000004  0.000005 -0.048641  0.043100  0.471767
                                 0.000895 -0.000795 -0.008648 -0.007334 -0.003638 -0.045206  0.005177 -0.005543 -0.000001  0.000001
                                -0.000860  0.000762  0.008336  0.000000 -0.000002 -0.000006 -0.008373  0.007441  0.081411  0.003177
                                -0.002816 -0.030792 -0.004098 -0.002495 -0.006714 -0.000930  0.017832  0.000021 -0.000006 -0.000208
                                 0.000184  0.002014 -0.000000 -0.000001  0.000006  0.017996 -0.015978 -0.174887 -0.004295  0.003807
                                 0.041638 -0.001976 -0.001206 -0.003113 -0.000471  0.008721  0.159674 -0.032423 -0.002436  0.005444
                                 0.002012  0.000054 -0.000020  0.000309 -0.000273 -0.002980 -0.159721  0.032438  0.001875 -0.004949
                                 0.003410

  15.1   2    -0.4258  -11.7275  0.002533  0.015352 -0.027590  0.015876  0.794658 -0.070949 -0.006009  0.052595 -0.005424  0.000406
                                 0.010667 -0.000998  0.000686  0.001246  0.006833  0.025375 -0.081634 -0.007367 -0.272613  0.024144
                                -0.048975  0.128911 -0.016825  0.001924 -0.071713  0.006886  0.005263 -0.006728 -0.397155  0.037535
                                 0.007155  0.003555  0.000413 -0.005630  0.119792  0.162052 -0.165147  0.276875 -0.042320 -0.007867
                                -0.013762  0.000449  0.000179 -0.013214  0.001599  0.003860 -0.001005 -0.095391  0.012784  0.002939
                                 0.006251 -0.000268  0.001999 -0.002039 -0.014590 -0.056604 -0.111587  0.004354 -0.007368 -0.031937
                                 0.002151  0.004513 -0.005035 -0.000424 -0.000697  0.000137  0.048300 -0.007640 -0.001402  0.000732
                                 0.000974  0.011914 -0.067467  0.000296 -0.007547  0.000720  0.048289 -0.007634 -0.001162  0.000519
                                -0.001352

  16.1   +    -0.3788  -10.7702 -0.000000 -0.000001 -0.000000  0.032531 -0.028823 -0.315571  0.005213 -0.004618 -0.050565 -0.000723
                                -0.000367 -0.004118  0.000440 -0.000163 -0.000000  0.000002 -0.000000 -0.017202  0.015241  0.166882
                                 0.005078 -0.004500 -0.049267  0.011776  0.006615  0.041602 -0.001923 -0.026068 -0.000002 -0.000000
                                -0.000451  0.000400  0.004378  0.000000 -0.000006 -0.000002 -0.084539  0.074921  0.820099 -0.011173
                                 0.009898  0.108365 -0.004608 -0.002844 -0.006031 -0.001360  0.021761  0.000003  0.000001 -0.001759
                                 0.001559  0.017063  0.000000  0.000003 -0.000005  0.008651 -0.007666 -0.083927  0.006360 -0.005638
                                -0.061672 -0.004213 -0.002839  0.004079 -0.003218  0.030695  0.153249 -0.005912  0.000077  0.001885
                                 0.000839  0.000026  0.000002  0.000073 -0.000064 -0.000705 -0.153277  0.005908 -0.000280 -0.001705
                                 0.001131

  17.1   0     0.1721   -9.8978  0.000000 -0.000002 -0.000007  0.048849 -0.043283 -0.473878  0.024762 -0.021940 -0.240230  0.001102
                                 0.000530  0.007482 -0.000920  0.001608  0.000000 -0.000012 -0.000033 -0.067426  0.059733  0.653964
                                -0.047394  0.041976  0.459653  0.003003  0.001258  0.027729 -0.004021  0.012680  0.000003  0.000054
                                -0.002846  0.002521  0.027598 -0.000001 -0.000005 -0.000016  0.038786 -0.034392 -0.376416  0.026146
                                -0.023204 -0.253897 -0.008718 -0.005249 -0.016849 -0.001454  0.035063 -0.000007  0.000068  0.001518
                                -0.001346 -0.014740  0.000009 -0.000014 -0.000203  0.004214 -0.003731 -0.040988  0.013244 -0.011716
                                -0.128696  0.001631  0.001279 -0.008754  0.002724 -0.019983 -0.116390 -0.231155  0.004570  0.002633
                                -0.002135 -0.000024 -0.000010 -0.000184  0.000163  0.001781  0.116424  0.231437 -0.004093 -0.003056
                                -0.002513

  18.1   0     0.1829   -6.1864  0.000880 -0.038740 -0.026905 -0.011001  0.087086 -0.009042 -0.000389  0.066277 -0.006069 -0.000000
                                -0.001618 -0.000147 -0.002881 -0.000433  0.018183 -0.065105 -0.620661 -0.100180 -0.140630  0.002449
                                -0.106799 -0.115207 -0.000533  0.011885 -0.002774 -0.002504 -0.005776  0.001098 -0.000176  0.729155
                                -0.004542 -0.007931  0.000253  0.019882 -0.104986 -0.689842 -0.271787 -0.014474 -0.026656 -0.589943
                                -0.036580 -0.057446  0.012698 -0.005530 -0.001998 -0.001975  0.001284  0.003005  1.361346 -0.017162
                                -0.002166 -0.001570  0.054276 -0.072956 -1.287297 -0.066681  0.150305 -0.020604 -0.043326  0.226100
                                -0.025128 -0.002986 -0.000559  0.000395 -0.001956 -0.000716  0.026644  0.794857 -0.004170  0.007909
                                 0.008163 -0.008816  0.084989  0.000520 -0.001530  0.000194  0.026612  0.794737 -0.002283  0.006238
                                -0.010121

  19.1   0     0.2058   -6.0174  0.002836 -0.034131 -0.076214 -0.027258 -0.014513 -0.001458 -0.055158 -0.058112 -0.000364  0.000670
                                 0.004996 -0.000810 -0.002144  0.000437 -0.031259  0.045864  0.925548  0.082290  0.206622 -0.010425
                                 0.146274  0.361984 -0.018012 -0.006051  0.007644  0.000130 -0.002481 -0.000401 -0.000762 -1.106728
                                 0.004853  0.015752 -0.000940 -0.026219  0.022146  0.616667  0.142063 -0.065036  0.020607  0.263079
                                -0.192892  0.044767  0.007245 -0.004890 -0.000409  0.004372  0.001053 -0.070394 -0.761167  0.009087
                                -0.006107  0.001496  0.066284 -0.131865 -1.749179  0.037672  0.105838 -0.005803 -0.003918  0.275458
                                -0.025615 -0.007553  0.011928  0.000418  0.001493  0.000169 -0.004429  0.844042 -0.004710  0.006760
                                 0.010189  0.054085  0.791165  0.011562 -0.005433  0.001690 -0.004422  0.844117 -0.002422  0.004734
                                -0.011977

  20.1   0     0.2401   -5.9833  0.013041  0.042918 -0.201043  0.075839  0.003373  0.007537  0.013993  0.081419 -0.005980 -0.000874
                                -0.001675  0.000160 -0.001499 -0.000453  0.032071 -0.191214 -1.059437 -0.189817 -0.151232 -0.005789
                                -0.554177 -0.650738  0.002275  0.003884 -0.015896  0.001215  0.004253 -0.000652  0.052874  1.785071
                                -0.015214 -0.013573 -0.000330 -0.032165  0.204265  1.144964  0.134008  0.020038  0.012004  0.822479
                                 0.191347  0.067390  0.008174  0.006597  0.000041  0.020716  0.003897 -0.062482 -1.696934  0.020389
                                 0.004897  0.001656  0.014781 -0.102877 -0.254042 -0.022161 -0.062706  0.003357 -0.226358  0.055808
                                -0.028698  0.000715  0.002906 -0.001614 -0.011699 -0.000641  0.015709  0.281037 -0.001201 -0.002764
                                 0.002094 -0.056981  0.008906 -0.001018 -0.003125  0.000181  0.015711  0.281698 -0.000803 -0.003108
                                -0.001771

  21.1   0     0.2538   -5.9034  0.000002  0.000004 -0.000029  0.009259 -0.008197 -0.089716  0.004558 -0.004033 -0.044189  0.000355
                                 0.000202  0.001156 -0.000038 -0.000898  0.000006 -0.000032 -0.000119 -0.009936  0.008767  0.096074
                                -0.014628  0.012807  0.141094  0.001663  0.001023  0.002299  0.000464 -0.007727  0.000020  0.000241
                                -0.000279  0.000246  0.002686 -0.000007  0.000061  0.000321  0.003731 -0.003272 -0.035868  0.037518
                                -0.033068 -0.361699 -0.003509 -0.001774 -0.020158  0.002182 -0.001004  0.000004 -0.000462  0.000834
                                -0.000732 -0.008029  0.000004 -0.000022 -0.000099 -0.046692  0.041333  0.452221 -0.128461  0.113700
                                 1.243468  0.005026  0.002989  0.011164  0.000533 -0.018531  0.046274  1.775111 -0.006147  0.018677
                                 0.014889 -0.000021 -0.000071  0.000232 -0.000207 -0.002258 -0.046259 -1.774911  0.002656 -0.015586
                                 0.018928


 **********************************************************************************************************************************
 DATASETS  * FILE   NREC   LENGTH (MB)   RECORD NAMES
              1      19       41.06       500      610      700      900      950      970     1000      129      960     1100   
                                          VAR    BASINP    GEOM    SYMINP    ZMAT    AOBASIS   BASIS     P2S    ABASIS      S 
                                         1400     1410     1200     1210     1080     1600     1650     1300     1700   
                                           T        V       H0       H01     AOSYM     SMH    MOLCAS    ERIS     OPER   

              2       3        0.59       700     1000     2100   
                                         GEOM     BASIS     RHF  

 PROGRAMS   *        TOTAL       RHF       INT
 CPU TIMES  *         2.11      1.13      0.92
 REAL TIME  *         2.69 SEC
 DISK USED  *       152.38 MB      
 GA USED    *         0.00 MB       (max)       0.00 MB       (current)
 **********************************************************************************************************************************

1PROGRAM * ALASKA (Gradient of the energy)     Author: R. Lindh

 Orbitals from record         2100.2

 Number of closed-shell orbitals: 15 ( 15 )
 Number of active orbitals:        1 (  1 )
 Number of occupied orbitals:     16 ( 16 )

 Number of electrons= 31     Doublet     Space symmetry=1      Wavefunction type: OSCF            


 RHF GRADIENT FOR STATE 1.1

 Atom          dE/dx               dE/dy               dE/dz

   1        -0.072108347        -0.000771919        -0.007362797
   2         0.066245044        -0.006104598         0.007386376
   3         0.005484057         0.004995822         0.000109162
   4        -0.004689875         0.004274832        -0.000873909
   5         0.006177384         0.000420191         0.000598276
   6         0.001229351         0.002159706        -0.000071949
   7         0.002081047        -0.003165060        -0.003128025
   8        -0.005763257         0.000704401        -0.000658621
   9         0.001344596        -0.002513375         0.004001486

 Nuclear force contribution to virial =         0.234864259


 **********************************************************************************************************************************
 DATASETS  * FILE   NREC   LENGTH (MB)   RECORD NAMES
              1      19       41.06       500      610      700      900      950      970     1000      129      960     1100   
                                          VAR    BASINP    GEOM    SYMINP    ZMAT    AOBASIS   BASIS     P2S    ABASIS      S 
                                         1400     1410     1200     1210     1080     1600     1650     1300     1700   
                                           T        V       H0       H01     AOSYM     SMH    MOLCAS    ERIS     OPER   

              2       3        0.59       700     1000     2100   
                                         GEOM     BASIS     RHF  

 PROGRAMS   *        TOTAL    FORCES       RHF       INT
 CPU TIMES  *         5.00      2.89      1.13      0.92
 REAL TIME  *         5.88 SEC
 DISK USED  *       152.38 MB      
 GA USED    *         0.00 MB       (max)       0.00 MB       (current)
 **********************************************************************************************************************************
 ENERGY(1)        =             -191.3422573730 AU

        RHF-SCF 
   -191.34225737
 **********************************************************************************************************************************
 Variable memory released
